<?xml version="1.0" encoding="UTF-8"?>

<!-- generated on Sun Nov  4 12:47:42 2018 by SUMO Version 0.32.0
<?xml version="1.0" encoding="UTF-8"?>

<configuration xmlns:xsi="http://www.w3.org/2001/XMLSchema-instance" xsi:noNamespaceSchemaLocation="http://sumo.dlr.de/xsd/sumoConfiguration.xsd">

    <input>
        <net-file value="my-first.net.xml"/>
        <route-files value="my-first.rou.xml"/>
    </input>

    <output>
        <fcd-output value="fcd.xml.tcl"/>
    </output>

    <time>
        <begin value="0"/>
        <end value="10000"/>
    </time>

    <gui_only>
        <gui-settings-file value="my-first.settings.xml"/>
    </gui_only>

</configuration>
-->

<fcd-export xmlns:xsi="http://www.w3.org/2001/XMLSchema-instance" xsi:noNamespaceSchemaLocation="http://sumo.dlr.de/xsd/fcd_file.xsd">
    <timestep time="0.00">
        <vehicle id="route0.0" x="5.10" y="-1.65" angle="90.00" type="DEFAULT_VEHTYPE" speed="0.00" pos="5.10" lane="1to2_0" slope="0.00"/>
    </timestep>
    <timestep time="1.00">
        <vehicle id="route0.0" x="6.54" y="-1.65" angle="90.00" type="DEFAULT_VEHTYPE" speed="1.44" pos="6.54" lane="1to2_0" slope="0.00"/>
    </timestep>
    <timestep time="2.00">
        <vehicle id="route0.0" x="9.66" y="-1.65" angle="90.00" type="DEFAULT_VEHTYPE" speed="3.12" pos="9.66" lane="1to2_0" slope="0.00"/>
    </timestep>
    <timestep time="3.00">
        <vehicle id="route0.0" x="15.31" y="-1.65" angle="90.00" type="DEFAULT_VEHTYPE" speed="5.66" pos="15.31" lane="1to2_0" slope="0.00"/>
    </timestep>
    <timestep time="4.00">
        <vehicle id="route0.0" x="22.93" y="-1.65" angle="90.00" type="DEFAULT_VEHTYPE" speed="7.62" pos="22.93" lane="1to2_0" slope="0.00"/>
    </timestep>
    <timestep time="5.00">
        <vehicle id="route0.0" x="32.38" y="-1.65" angle="90.00" type="DEFAULT_VEHTYPE" speed="9.45" pos="32.38" lane="1to2_0" slope="0.00"/>
    </timestep>
    <timestep time="6.00">
        <vehicle id="route0.0" x="44.38" y="-1.65" angle="90.00" type="DEFAULT_VEHTYPE" speed="11.99" pos="44.38" lane="1to2_0" slope="0.00"/>
    </timestep>
    <timestep time="7.00">
        <vehicle id="route0.0" x="57.31" y="-1.65" angle="90.00" type="DEFAULT_VEHTYPE" speed="12.93" pos="57.31" lane="1to2_0" slope="0.00"/>
    </timestep>
    <timestep time="8.00">
        <vehicle id="route0.0" x="70.89" y="-1.65" angle="90.00" type="DEFAULT_VEHTYPE" speed="13.58" pos="70.89" lane="1to2_0" slope="0.00"/>
    </timestep>
    <timestep time="9.00">
        <vehicle id="route0.0" x="84.08" y="-1.65" angle="90.00" type="DEFAULT_VEHTYPE" speed="13.19" pos="84.08" lane="1to2_0" slope="0.00"/>
    </timestep>
    <timestep time="10.00">
        <vehicle id="route0.0" x="97.01" y="-1.65" angle="90.00" type="DEFAULT_VEHTYPE" speed="12.93" pos="97.01" lane="1to2_0" slope="0.00"/>
    </timestep>
    <timestep time="11.00">
        <vehicle id="route0.0" x="110.90" y="-1.65" angle="90.00" type="DEFAULT_VEHTYPE" speed="13.89" pos="110.90" lane="1to2_0" slope="0.00"/>
    </timestep>
    <timestep time="12.00">
        <vehicle id="route0.0" x="123.93" y="-1.65" angle="90.00" type="DEFAULT_VEHTYPE" speed="13.03" pos="123.93" lane="1to2_0" slope="0.00"/>
    </timestep>
    <timestep time="13.00">
        <vehicle id="route0.0" x="137.22" y="-1.65" angle="90.00" type="DEFAULT_VEHTYPE" speed="13.29" pos="137.22" lane="1to2_0" slope="0.00"/>
    </timestep>
    <timestep time="14.00">
        <vehicle id="route0.0" x="150.53" y="-1.65" angle="90.00" type="DEFAULT_VEHTYPE" speed="13.31" pos="150.53" lane="1to2_0" slope="0.00"/>
    </timestep>
    <timestep time="15.00">
        <vehicle id="route0.0" x="163.70" y="-1.65" angle="90.00" type="DEFAULT_VEHTYPE" speed="13.16" pos="163.70" lane="1to2_0" slope="0.00"/>
    </timestep>
    <timestep time="16.00">
        <vehicle id="route0.0" x="177.25" y="-1.65" angle="90.00" type="DEFAULT_VEHTYPE" speed="13.56" pos="177.25" lane="1to2_0" slope="0.00"/>
    </timestep>
    <timestep time="17.00">
        <vehicle id="route0.0" x="191.07" y="-1.65" angle="90.00" type="DEFAULT_VEHTYPE" speed="13.82" pos="191.07" lane="1to2_0" slope="0.00"/>
    </timestep>
    <timestep time="18.00">
        <vehicle id="route0.0" x="203.84" y="-1.65" angle="90.00" type="DEFAULT_VEHTYPE" speed="12.76" pos="203.84" lane="1to2_0" slope="0.00"/>
    </timestep>
    <timestep time="19.00">
        <vehicle id="route0.0" x="217.32" y="-1.65" angle="90.00" type="DEFAULT_VEHTYPE" speed="13.48" pos="217.32" lane="1to2_0" slope="0.00"/>
    </timestep>
    <timestep time="20.00">
        <vehicle id="route0.0" x="230.33" y="-1.65" angle="90.00" type="DEFAULT_VEHTYPE" speed="13.01" pos="230.33" lane="1to2_0" slope="0.00"/>
    </timestep>
    <timestep time="21.00">
        <vehicle id="route0.0" x="244.17" y="-1.65" angle="90.00" type="DEFAULT_VEHTYPE" speed="13.84" pos="244.17" lane="1to2_0" slope="0.00"/>
    </timestep>
    <timestep time="22.00">
        <vehicle id="route0.0" x="257.40" y="-1.65" angle="90.00" type="DEFAULT_VEHTYPE" speed="13.23" pos="257.40" lane="1to2_0" slope="0.00"/>
    </timestep>
    <timestep time="23.00">
        <vehicle id="route0.0" x="270.90" y="-1.65" angle="90.00" type="DEFAULT_VEHTYPE" speed="13.50" pos="270.90" lane="1to2_0" slope="0.00"/>
    </timestep>
    <timestep time="24.00">
        <vehicle id="route0.0" x="283.98" y="-1.65" angle="90.00" type="DEFAULT_VEHTYPE" speed="13.08" pos="283.98" lane="1to2_0" slope="0.00"/>
    </timestep>
    <timestep time="25.00">
        <vehicle id="route0.0" x="296.66" y="-1.65" angle="90.00" type="DEFAULT_VEHTYPE" speed="12.68" pos="296.66" lane="1to2_0" slope="0.00"/>
    </timestep>
    <timestep time="26.00">
        <vehicle id="route0.0" x="309.49" y="-1.65" angle="90.00" type="DEFAULT_VEHTYPE" speed="12.83" pos="309.49" lane="1to2_0" slope="0.00"/>
    </timestep>
    <timestep time="27.00">
        <vehicle id="route0.0" x="322.23" y="-1.65" angle="90.00" type="DEFAULT_VEHTYPE" speed="12.75" pos="322.23" lane="1to2_0" slope="0.00"/>
    </timestep>
    <timestep time="28.00">
        <vehicle id="route0.0" x="335.62" y="-1.65" angle="90.00" type="DEFAULT_VEHTYPE" speed="13.38" pos="335.62" lane="1to2_0" slope="0.00"/>
    </timestep>
    <timestep time="29.00">
        <vehicle id="route0.0" x="348.81" y="-1.65" angle="90.00" type="DEFAULT_VEHTYPE" speed="13.19" pos="348.81" lane="1to2_0" slope="0.00"/>
    </timestep>
    <timestep time="30.00">
        <vehicle id="route0.0" x="362.40" y="-1.65" angle="90.00" type="DEFAULT_VEHTYPE" speed="13.59" pos="362.40" lane="1to2_0" slope="0.00"/>
    </timestep>
    <timestep time="31.00">
        <vehicle id="route0.0" x="376.26" y="-1.65" angle="90.00" type="DEFAULT_VEHTYPE" speed="13.86" pos="376.26" lane="1to2_0" slope="0.00"/>
    </timestep>
    <timestep time="32.00">
        <vehicle id="route0.0" x="389.77" y="-1.65" angle="90.00" type="DEFAULT_VEHTYPE" speed="13.51" pos="389.77" lane="1to2_0" slope="0.00"/>
    </timestep>
    <timestep time="33.00">
        <vehicle id="route0.0" x="402.67" y="-1.65" angle="90.00" type="DEFAULT_VEHTYPE" speed="12.91" pos="402.67" lane="1to2_0" slope="0.00"/>
    </timestep>
    <timestep time="34.00">
        <vehicle id="route0.0" x="416.37" y="-1.65" angle="90.00" type="DEFAULT_VEHTYPE" speed="13.69" pos="416.37" lane="1to2_0" slope="0.00"/>
    </timestep>
    <timestep time="35.00">
        <vehicle id="route0.0" x="429.02" y="-1.65" angle="90.00" type="DEFAULT_VEHTYPE" speed="12.66" pos="429.02" lane="1to2_0" slope="0.00"/>
    </timestep>
    <timestep time="36.00">
        <vehicle id="route0.0" x="442.89" y="-1.65" angle="90.00" type="DEFAULT_VEHTYPE" speed="13.86" pos="442.89" lane="1to2_0" slope="0.00"/>
        <vehicle id="route0.1" x="5.10" y="-1.65" angle="90.00" type="DEFAULT_VEHTYPE" speed="0.00" pos="5.10" lane="1to2_0" slope="0.00"/>
    </timestep>
    <timestep time="37.00">
        <vehicle id="route0.0" x="455.89" y="-1.65" angle="90.00" type="DEFAULT_VEHTYPE" speed="13.01" pos="455.89" lane="1to2_0" slope="0.00"/>
        <vehicle id="route0.1" x="7.27" y="-1.65" angle="90.00" type="DEFAULT_VEHTYPE" speed="2.17" pos="7.27" lane="1to2_0" slope="0.00"/>
    </timestep>
    <timestep time="38.00">
        <vehicle id="route0.0" x="469.63" y="-1.65" angle="90.00" type="DEFAULT_VEHTYPE" speed="13.73" pos="469.63" lane="1to2_0" slope="0.00"/>
        <vehicle id="route0.1" x="11.88" y="-1.65" angle="90.00" type="DEFAULT_VEHTYPE" speed="4.61" pos="11.88" lane="1to2_0" slope="0.00"/>
    </timestep>
    <timestep time="39.00">
        <vehicle id="route0.0" x="482.99" y="-1.65" angle="90.00" type="DEFAULT_VEHTYPE" speed="13.37" pos="482.99" lane="1to2_0" slope="0.00"/>
        <vehicle id="route0.1" x="17.83" y="-1.65" angle="90.00" type="DEFAULT_VEHTYPE" speed="5.95" pos="17.83" lane="1to2_0" slope="0.00"/>
    </timestep>
    <timestep time="40.00">
        <vehicle id="route0.0" x="496.55" y="-1.65" angle="90.00" type="DEFAULT_VEHTYPE" speed="13.56" pos="496.55" lane="1to2_0" slope="0.00"/>
        <vehicle id="route0.1" x="26.09" y="-1.65" angle="90.00" type="DEFAULT_VEHTYPE" speed="8.26" pos="26.09" lane="1to2_0" slope="0.00"/>
    </timestep>
    <timestep time="41.00">
        <vehicle id="route0.1" x="36.21" y="-1.65" angle="90.00" type="DEFAULT_VEHTYPE" speed="10.12" pos="36.21" lane="1to2_0" slope="0.00"/>
    </timestep>
    <timestep time="42.00">
        <vehicle id="route0.1" x="48.61" y="-1.65" angle="90.00" type="DEFAULT_VEHTYPE" speed="12.41" pos="48.61" lane="1to2_0" slope="0.00"/>
    </timestep>
    <timestep time="43.00">
        <vehicle id="route0.1" x="61.46" y="-1.65" angle="90.00" type="DEFAULT_VEHTYPE" speed="12.84" pos="61.46" lane="1to2_0" slope="0.00"/>
    </timestep>
    <timestep time="44.00">
        <vehicle id="route0.1" x="75.24" y="-1.65" angle="90.00" type="DEFAULT_VEHTYPE" speed="13.78" pos="75.24" lane="1to2_0" slope="0.00"/>
    </timestep>
    <timestep time="45.00">
        <vehicle id="route0.1" x="88.28" y="-1.65" angle="90.00" type="DEFAULT_VEHTYPE" speed="13.03" pos="88.28" lane="1to2_0" slope="0.00"/>
    </timestep>
    <timestep time="46.00">
        <vehicle id="route0.1" x="101.25" y="-1.65" angle="90.00" type="DEFAULT_VEHTYPE" speed="12.97" pos="101.25" lane="1to2_0" slope="0.00"/>
    </timestep>
    <timestep time="47.00">
        <vehicle id="route0.1" x="114.37" y="-1.65" angle="90.00" type="DEFAULT_VEHTYPE" speed="13.12" pos="114.37" lane="1to2_0" slope="0.00"/>
    </timestep>
    <timestep time="48.00">
        <vehicle id="route0.1" x="127.37" y="-1.65" angle="90.00" type="DEFAULT_VEHTYPE" speed="13.00" pos="127.37" lane="1to2_0" slope="0.00"/>
    </timestep>
    <timestep time="49.00">
        <vehicle id="route0.1" x="140.06" y="-1.65" angle="90.00" type="DEFAULT_VEHTYPE" speed="12.68" pos="140.06" lane="1to2_0" slope="0.00"/>
    </timestep>
    <timestep time="50.00">
        <vehicle id="route0.1" x="152.71" y="-1.65" angle="90.00" type="DEFAULT_VEHTYPE" speed="12.65" pos="152.71" lane="1to2_0" slope="0.00"/>
    </timestep>
    <timestep time="51.00">
        <vehicle id="route0.1" x="166.21" y="-1.65" angle="90.00" type="DEFAULT_VEHTYPE" speed="13.50" pos="166.21" lane="1to2_0" slope="0.00"/>
    </timestep>
    <timestep time="52.00">
        <vehicle id="route0.1" x="179.47" y="-1.65" angle="90.00" type="DEFAULT_VEHTYPE" speed="13.26" pos="179.47" lane="1to2_0" slope="0.00"/>
    </timestep>
    <timestep time="53.00">
        <vehicle id="route0.1" x="192.61" y="-1.65" angle="90.00" type="DEFAULT_VEHTYPE" speed="13.15" pos="192.61" lane="1to2_0" slope="0.00"/>
    </timestep>
    <timestep time="54.00">
        <vehicle id="route0.1" x="206.29" y="-1.65" angle="90.00" type="DEFAULT_VEHTYPE" speed="13.68" pos="206.29" lane="1to2_0" slope="0.00"/>
    </timestep>
    <timestep time="55.00">
        <vehicle id="route0.1" x="218.95" y="-1.65" angle="90.00" type="DEFAULT_VEHTYPE" speed="12.66" pos="218.95" lane="1to2_0" slope="0.00"/>
    </timestep>
    <timestep time="56.00">
        <vehicle id="route0.1" x="232.61" y="-1.65" angle="90.00" type="DEFAULT_VEHTYPE" speed="13.66" pos="232.61" lane="1to2_0" slope="0.00"/>
    </timestep>
    <timestep time="57.00">
        <vehicle id="route0.1" x="245.68" y="-1.65" angle="90.00" type="DEFAULT_VEHTYPE" speed="13.07" pos="245.68" lane="1to2_0" slope="0.00"/>
    </timestep>
    <timestep time="58.00">
        <vehicle id="route0.1" x="259.38" y="-1.65" angle="90.00" type="DEFAULT_VEHTYPE" speed="13.70" pos="259.38" lane="1to2_0" slope="0.00"/>
    </timestep>
    <timestep time="59.00">
        <vehicle id="route0.1" x="273.25" y="-1.65" angle="90.00" type="DEFAULT_VEHTYPE" speed="13.86" pos="273.25" lane="1to2_0" slope="0.00"/>
    </timestep>
    <timestep time="60.00">
        <vehicle id="route0.1" x="286.78" y="-1.65" angle="90.00" type="DEFAULT_VEHTYPE" speed="13.54" pos="286.78" lane="1to2_0" slope="0.00"/>
    </timestep>
    <timestep time="61.00">
        <vehicle id="route0.1" x="299.97" y="-1.65" angle="90.00" type="DEFAULT_VEHTYPE" speed="13.19" pos="299.97" lane="1to2_0" slope="0.00"/>
    </timestep>
    <timestep time="62.00">
        <vehicle id="route0.1" x="312.67" y="-1.65" angle="90.00" type="DEFAULT_VEHTYPE" speed="12.69" pos="312.67" lane="1to2_0" slope="0.00"/>
    </timestep>
    <timestep time="63.00">
        <vehicle id="route0.1" x="326.48" y="-1.65" angle="90.00" type="DEFAULT_VEHTYPE" speed="13.81" pos="326.48" lane="1to2_0" slope="0.00"/>
    </timestep>
    <timestep time="64.00">
        <vehicle id="route0.1" x="340.15" y="-1.65" angle="90.00" type="DEFAULT_VEHTYPE" speed="13.67" pos="340.15" lane="1to2_0" slope="0.00"/>
    </timestep>
    <timestep time="65.00">
        <vehicle id="route0.1" x="352.76" y="-1.65" angle="90.00" type="DEFAULT_VEHTYPE" speed="12.61" pos="352.76" lane="1to2_0" slope="0.00"/>
    </timestep>
    <timestep time="66.00">
        <vehicle id="route0.1" x="366.25" y="-1.65" angle="90.00" type="DEFAULT_VEHTYPE" speed="13.49" pos="366.25" lane="1to2_0" slope="0.00"/>
    </timestep>
    <timestep time="67.00">
        <vehicle id="route0.1" x="379.71" y="-1.65" angle="90.00" type="DEFAULT_VEHTYPE" speed="13.46" pos="379.71" lane="1to2_0" slope="0.00"/>
    </timestep>
    <timestep time="68.00">
        <vehicle id="route0.1" x="393.50" y="-1.65" angle="90.00" type="DEFAULT_VEHTYPE" speed="13.79" pos="393.50" lane="1to2_0" slope="0.00"/>
    </timestep>
    <timestep time="69.00">
        <vehicle id="route0.1" x="406.66" y="-1.65" angle="90.00" type="DEFAULT_VEHTYPE" speed="13.16" pos="406.66" lane="1to2_0" slope="0.00"/>
    </timestep>
    <timestep time="70.00">
        <vehicle id="route0.1" x="420.29" y="-1.65" angle="90.00" type="DEFAULT_VEHTYPE" speed="13.63" pos="420.29" lane="1to2_0" slope="0.00"/>
    </timestep>
    <timestep time="71.00">
        <vehicle id="route0.1" x="433.96" y="-1.65" angle="90.00" type="DEFAULT_VEHTYPE" speed="13.67" pos="433.96" lane="1to2_0" slope="0.00"/>
    </timestep>
    <timestep time="72.00">
        <vehicle id="route0.1" x="447.79" y="-1.65" angle="90.00" type="DEFAULT_VEHTYPE" speed="13.84" pos="447.79" lane="1to2_0" slope="0.00"/>
        <vehicle id="route0.2" x="5.10" y="-1.65" angle="90.00" type="DEFAULT_VEHTYPE" speed="0.00" pos="5.10" lane="1to2_0" slope="0.00"/>
    </timestep>
    <timestep time="73.00">
        <vehicle id="route0.1" x="461.59" y="-1.65" angle="90.00" type="DEFAULT_VEHTYPE" speed="13.80" pos="461.59" lane="1to2_0" slope="0.00"/>
        <vehicle id="route0.2" x="6.76" y="-1.65" angle="90.00" type="DEFAULT_VEHTYPE" speed="1.66" pos="6.76" lane="1to2_0" slope="0.00"/>
    </timestep>
    <timestep time="74.00">
        <vehicle id="route0.1" x="475.03" y="-1.65" angle="90.00" type="DEFAULT_VEHTYPE" speed="13.44" pos="475.03" lane="1to2_0" slope="0.00"/>
        <vehicle id="route0.2" x="10.65" y="-1.65" angle="90.00" type="DEFAULT_VEHTYPE" speed="3.88" pos="10.65" lane="1to2_0" slope="0.00"/>
    </timestep>
    <timestep time="75.00">
        <vehicle id="route0.1" x="488.66" y="-1.65" angle="90.00" type="DEFAULT_VEHTYPE" speed="13.62" pos="488.66" lane="1to2_0" slope="0.00"/>
        <vehicle id="route0.2" x="16.25" y="-1.65" angle="90.00" type="DEFAULT_VEHTYPE" speed="5.60" pos="16.25" lane="1to2_0" slope="0.00"/>
    </timestep>
    <timestep time="76.00">
        <vehicle id="route0.2" x="23.65" y="-1.65" angle="90.00" type="DEFAULT_VEHTYPE" speed="7.40" pos="23.65" lane="1to2_0" slope="0.00"/>
    </timestep>
    <timestep time="77.00">
        <vehicle id="route0.2" x="33.15" y="-1.65" angle="90.00" type="DEFAULT_VEHTYPE" speed="9.50" pos="33.15" lane="1to2_0" slope="0.00"/>
    </timestep>
    <timestep time="78.00">
        <vehicle id="route0.2" x="44.58" y="-1.65" angle="90.00" type="DEFAULT_VEHTYPE" speed="11.43" pos="44.58" lane="1to2_0" slope="0.00"/>
    </timestep>
    <timestep time="79.00">
        <vehicle id="route0.2" x="57.40" y="-1.65" angle="90.00" type="DEFAULT_VEHTYPE" speed="12.83" pos="57.40" lane="1to2_0" slope="0.00"/>
    </timestep>
    <timestep time="80.00">
        <vehicle id="route0.2" x="70.54" y="-1.65" angle="90.00" type="DEFAULT_VEHTYPE" speed="13.14" pos="70.54" lane="1to2_0" slope="0.00"/>
    </timestep>
    <timestep time="81.00">
        <vehicle id="route0.2" x="83.90" y="-1.65" angle="90.00" type="DEFAULT_VEHTYPE" speed="13.36" pos="83.90" lane="1to2_0" slope="0.00"/>
    </timestep>
    <timestep time="82.00">
        <vehicle id="route0.2" x="97.33" y="-1.65" angle="90.00" type="DEFAULT_VEHTYPE" speed="13.43" pos="97.33" lane="1to2_0" slope="0.00"/>
    </timestep>
    <timestep time="83.00">
        <vehicle id="route0.2" x="109.96" y="-1.65" angle="90.00" type="DEFAULT_VEHTYPE" speed="12.63" pos="109.96" lane="1to2_0" slope="0.00"/>
    </timestep>
    <timestep time="84.00">
        <vehicle id="route0.2" x="123.82" y="-1.65" angle="90.00" type="DEFAULT_VEHTYPE" speed="13.87" pos="123.82" lane="1to2_0" slope="0.00"/>
    </timestep>
    <timestep time="85.00">
        <vehicle id="route0.2" x="137.33" y="-1.65" angle="90.00" type="DEFAULT_VEHTYPE" speed="13.51" pos="137.33" lane="1to2_0" slope="0.00"/>
    </timestep>
    <timestep time="86.00">
        <vehicle id="route0.2" x="151.09" y="-1.65" angle="90.00" type="DEFAULT_VEHTYPE" speed="13.76" pos="151.09" lane="1to2_0" slope="0.00"/>
    </timestep>
    <timestep time="87.00">
        <vehicle id="route0.2" x="163.86" y="-1.65" angle="90.00" type="DEFAULT_VEHTYPE" speed="12.76" pos="163.86" lane="1to2_0" slope="0.00"/>
    </timestep>
    <timestep time="88.00">
        <vehicle id="route0.2" x="176.94" y="-1.65" angle="90.00" type="DEFAULT_VEHTYPE" speed="13.09" pos="176.94" lane="1to2_0" slope="0.00"/>
    </timestep>
    <timestep time="89.00">
        <vehicle id="route0.2" x="189.64" y="-1.65" angle="90.00" type="DEFAULT_VEHTYPE" speed="12.70" pos="189.64" lane="1to2_0" slope="0.00"/>
    </timestep>
    <timestep time="90.00">
        <vehicle id="route0.2" x="202.90" y="-1.65" angle="90.00" type="DEFAULT_VEHTYPE" speed="13.26" pos="202.90" lane="1to2_0" slope="0.00"/>
    </timestep>
    <timestep time="91.00">
        <vehicle id="route0.2" x="216.25" y="-1.65" angle="90.00" type="DEFAULT_VEHTYPE" speed="13.35" pos="216.25" lane="1to2_0" slope="0.00"/>
    </timestep>
    <timestep time="92.00">
        <vehicle id="route0.2" x="229.22" y="-1.65" angle="90.00" type="DEFAULT_VEHTYPE" speed="12.98" pos="229.22" lane="1to2_0" slope="0.00"/>
    </timestep>
    <timestep time="93.00">
        <vehicle id="route0.2" x="242.53" y="-1.65" angle="90.00" type="DEFAULT_VEHTYPE" speed="13.31" pos="242.53" lane="1to2_0" slope="0.00"/>
    </timestep>
    <timestep time="94.00">
        <vehicle id="route0.2" x="255.30" y="-1.65" angle="90.00" type="DEFAULT_VEHTYPE" speed="12.76" pos="255.30" lane="1to2_0" slope="0.00"/>
    </timestep>
    <timestep time="95.00">
        <vehicle id="route0.2" x="268.45" y="-1.65" angle="90.00" type="DEFAULT_VEHTYPE" speed="13.15" pos="268.45" lane="1to2_0" slope="0.00"/>
    </timestep>
    <timestep time="96.00">
        <vehicle id="route0.2" x="281.09" y="-1.65" angle="90.00" type="DEFAULT_VEHTYPE" speed="12.64" pos="281.09" lane="1to2_0" slope="0.00"/>
    </timestep>
    <timestep time="97.00">
        <vehicle id="route0.2" x="294.60" y="-1.65" angle="90.00" type="DEFAULT_VEHTYPE" speed="13.51" pos="294.60" lane="1to2_0" slope="0.00"/>
    </timestep>
    <timestep time="98.00">
        <vehicle id="route0.2" x="307.97" y="-1.65" angle="90.00" type="DEFAULT_VEHTYPE" speed="13.37" pos="307.97" lane="1to2_0" slope="0.00"/>
    </timestep>
    <timestep time="99.00">
        <vehicle id="route0.2" x="321.42" y="-1.65" angle="90.00" type="DEFAULT_VEHTYPE" speed="13.45" pos="321.42" lane="1to2_0" slope="0.00"/>
    </timestep>
    <timestep time="100.00">
        <vehicle id="route0.2" x="334.41" y="-1.65" angle="90.00" type="DEFAULT_VEHTYPE" speed="12.99" pos="334.41" lane="1to2_0" slope="0.00"/>
    </timestep>
    <timestep time="101.00">
        <vehicle id="route0.2" x="348.18" y="-1.65" angle="90.00" type="DEFAULT_VEHTYPE" speed="13.77" pos="348.18" lane="1to2_0" slope="0.00"/>
    </timestep>
    <timestep time="102.00">
        <vehicle id="route0.2" x="361.47" y="-1.65" angle="90.00" type="DEFAULT_VEHTYPE" speed="13.29" pos="361.47" lane="1to2_0" slope="0.00"/>
    </timestep>
    <timestep time="103.00">
        <vehicle id="route0.2" x="374.51" y="-1.65" angle="90.00" type="DEFAULT_VEHTYPE" speed="13.04" pos="374.51" lane="1to2_0" slope="0.00"/>
    </timestep>
    <timestep time="104.00">
        <vehicle id="route0.2" x="387.40" y="-1.65" angle="90.00" type="DEFAULT_VEHTYPE" speed="12.88" pos="387.40" lane="1to2_0" slope="0.00"/>
    </timestep>
    <timestep time="105.00">
        <vehicle id="route0.2" x="400.93" y="-1.65" angle="90.00" type="DEFAULT_VEHTYPE" speed="13.53" pos="400.93" lane="1to2_0" slope="0.00"/>
    </timestep>
    <timestep time="106.00">
        <vehicle id="route0.2" x="413.91" y="-1.65" angle="90.00" type="DEFAULT_VEHTYPE" speed="12.97" pos="413.91" lane="1to2_0" slope="0.00"/>
    </timestep>
    <timestep time="107.00">
        <vehicle id="route0.2" x="427.65" y="-1.65" angle="90.00" type="DEFAULT_VEHTYPE" speed="13.74" pos="427.65" lane="1to2_0" slope="0.00"/>
    </timestep>
    <timestep time="108.00">
        <vehicle id="route0.2" x="440.62" y="-1.65" angle="90.00" type="DEFAULT_VEHTYPE" speed="12.97" pos="440.62" lane="1to2_0" slope="0.00"/>
        <vehicle id="route0.3" x="5.10" y="-1.65" angle="90.00" type="DEFAULT_VEHTYPE" speed="0.00" pos="5.10" lane="1to2_0" slope="0.00"/>
    </timestep>
    <timestep time="109.00">
        <vehicle id="route0.2" x="454.33" y="-1.65" angle="90.00" type="DEFAULT_VEHTYPE" speed="13.72" pos="454.33" lane="1to2_0" slope="0.00"/>
        <vehicle id="route0.3" x="6.55" y="-1.65" angle="90.00" type="DEFAULT_VEHTYPE" speed="1.45" pos="6.55" lane="1to2_0" slope="0.00"/>
    </timestep>
    <timestep time="110.00">
        <vehicle id="route0.2" x="467.75" y="-1.65" angle="90.00" type="DEFAULT_VEHTYPE" speed="13.42" pos="467.75" lane="1to2_0" slope="0.00"/>
        <vehicle id="route0.3" x="9.98" y="-1.65" angle="90.00" type="DEFAULT_VEHTYPE" speed="3.43" pos="9.98" lane="1to2_0" slope="0.00"/>
    </timestep>
    <timestep time="111.00">
        <vehicle id="route0.2" x="481.60" y="-1.65" angle="90.00" type="DEFAULT_VEHTYPE" speed="13.84" pos="481.60" lane="1to2_0" slope="0.00"/>
        <vehicle id="route0.3" x="15.50" y="-1.65" angle="90.00" type="DEFAULT_VEHTYPE" speed="5.52" pos="15.50" lane="1to2_0" slope="0.00"/>
    </timestep>
    <timestep time="112.00">
        <vehicle id="route0.2" x="494.62" y="-1.65" angle="90.00" type="DEFAULT_VEHTYPE" speed="13.02" pos="494.62" lane="1to2_0" slope="0.00"/>
        <vehicle id="route0.3" x="22.35" y="-1.65" angle="90.00" type="DEFAULT_VEHTYPE" speed="6.85" pos="22.35" lane="1to2_0" slope="0.00"/>
    </timestep>
    <timestep time="113.00">
        <vehicle id="route0.3" x="31.60" y="-1.65" angle="90.00" type="DEFAULT_VEHTYPE" speed="9.25" pos="31.60" lane="1to2_0" slope="0.00"/>
    </timestep>
    <timestep time="114.00">
        <vehicle id="route0.3" x="42.28" y="-1.65" angle="90.00" type="DEFAULT_VEHTYPE" speed="10.67" pos="42.28" lane="1to2_0" slope="0.00"/>
    </timestep>
    <timestep time="115.00">
        <vehicle id="route0.3" x="55.11" y="-1.65" angle="90.00" type="DEFAULT_VEHTYPE" speed="12.83" pos="55.11" lane="1to2_0" slope="0.00"/>
    </timestep>
    <timestep time="116.00">
        <vehicle id="route0.3" x="68.14" y="-1.65" angle="90.00" type="DEFAULT_VEHTYPE" speed="13.04" pos="68.14" lane="1to2_0" slope="0.00"/>
    </timestep>
    <timestep time="117.00">
        <vehicle id="route0.3" x="81.48" y="-1.65" angle="90.00" type="DEFAULT_VEHTYPE" speed="13.34" pos="81.48" lane="1to2_0" slope="0.00"/>
    </timestep>
    <timestep time="118.00">
        <vehicle id="route0.3" x="94.62" y="-1.65" angle="90.00" type="DEFAULT_VEHTYPE" speed="13.13" pos="94.62" lane="1to2_0" slope="0.00"/>
    </timestep>
    <timestep time="119.00">
        <vehicle id="route0.3" x="108.16" y="-1.65" angle="90.00" type="DEFAULT_VEHTYPE" speed="13.54" pos="108.16" lane="1to2_0" slope="0.00"/>
    </timestep>
    <timestep time="120.00">
        <vehicle id="route0.3" x="121.56" y="-1.65" angle="90.00" type="DEFAULT_VEHTYPE" speed="13.41" pos="121.56" lane="1to2_0" slope="0.00"/>
    </timestep>
    <timestep time="121.00">
        <vehicle id="route0.3" x="134.58" y="-1.65" angle="90.00" type="DEFAULT_VEHTYPE" speed="13.01" pos="134.58" lane="1to2_0" slope="0.00"/>
    </timestep>
    <timestep time="122.00">
        <vehicle id="route0.3" x="147.71" y="-1.65" angle="90.00" type="DEFAULT_VEHTYPE" speed="13.13" pos="147.71" lane="1to2_0" slope="0.00"/>
    </timestep>
    <timestep time="123.00">
        <vehicle id="route0.3" x="160.86" y="-1.65" angle="90.00" type="DEFAULT_VEHTYPE" speed="13.15" pos="160.86" lane="1to2_0" slope="0.00"/>
    </timestep>
    <timestep time="124.00">
        <vehicle id="route0.3" x="174.63" y="-1.65" angle="90.00" type="DEFAULT_VEHTYPE" speed="13.77" pos="174.63" lane="1to2_0" slope="0.00"/>
    </timestep>
    <timestep time="125.00">
        <vehicle id="route0.3" x="187.42" y="-1.65" angle="90.00" type="DEFAULT_VEHTYPE" speed="12.79" pos="187.42" lane="1to2_0" slope="0.00"/>
    </timestep>
    <timestep time="126.00">
        <vehicle id="route0.3" x="200.48" y="-1.65" angle="90.00" type="DEFAULT_VEHTYPE" speed="13.07" pos="200.48" lane="1to2_0" slope="0.00"/>
    </timestep>
    <timestep time="127.00">
        <vehicle id="route0.3" x="213.31" y="-1.65" angle="90.00" type="DEFAULT_VEHTYPE" speed="12.83" pos="213.31" lane="1to2_0" slope="0.00"/>
    </timestep>
    <timestep time="128.00">
        <vehicle id="route0.3" x="225.99" y="-1.65" angle="90.00" type="DEFAULT_VEHTYPE" speed="12.67" pos="225.99" lane="1to2_0" slope="0.00"/>
    </timestep>
    <timestep time="129.00">
        <vehicle id="route0.3" x="239.17" y="-1.65" angle="90.00" type="DEFAULT_VEHTYPE" speed="13.19" pos="239.17" lane="1to2_0" slope="0.00"/>
    </timestep>
    <timestep time="130.00">
        <vehicle id="route0.3" x="253.05" y="-1.65" angle="90.00" type="DEFAULT_VEHTYPE" speed="13.88" pos="253.05" lane="1to2_0" slope="0.00"/>
    </timestep>
    <timestep time="131.00">
        <vehicle id="route0.3" x="265.68" y="-1.65" angle="90.00" type="DEFAULT_VEHTYPE" speed="12.62" pos="265.68" lane="1to2_0" slope="0.00"/>
    </timestep>
    <timestep time="132.00">
        <vehicle id="route0.3" x="278.42" y="-1.65" angle="90.00" type="DEFAULT_VEHTYPE" speed="12.75" pos="278.42" lane="1to2_0" slope="0.00"/>
    </timestep>
    <timestep time="133.00">
        <vehicle id="route0.3" x="291.70" y="-1.65" angle="90.00" type="DEFAULT_VEHTYPE" speed="13.27" pos="291.70" lane="1to2_0" slope="0.00"/>
    </timestep>
    <timestep time="134.00">
        <vehicle id="route0.3" x="304.42" y="-1.65" angle="90.00" type="DEFAULT_VEHTYPE" speed="12.73" pos="304.42" lane="1to2_0" slope="0.00"/>
    </timestep>
    <timestep time="135.00">
        <vehicle id="route0.3" x="318.10" y="-1.65" angle="90.00" type="DEFAULT_VEHTYPE" speed="13.68" pos="318.10" lane="1to2_0" slope="0.00"/>
    </timestep>
    <timestep time="136.00">
        <vehicle id="route0.3" x="331.56" y="-1.65" angle="90.00" type="DEFAULT_VEHTYPE" speed="13.45" pos="331.56" lane="1to2_0" slope="0.00"/>
    </timestep>
    <timestep time="137.00">
        <vehicle id="route0.3" x="344.42" y="-1.65" angle="90.00" type="DEFAULT_VEHTYPE" speed="12.86" pos="344.42" lane="1to2_0" slope="0.00"/>
    </timestep>
    <timestep time="138.00">
        <vehicle id="route0.3" x="357.71" y="-1.65" angle="90.00" type="DEFAULT_VEHTYPE" speed="13.29" pos="357.71" lane="1to2_0" slope="0.00"/>
    </timestep>
    <timestep time="139.00">
        <vehicle id="route0.3" x="371.17" y="-1.65" angle="90.00" type="DEFAULT_VEHTYPE" speed="13.46" pos="371.17" lane="1to2_0" slope="0.00"/>
    </timestep>
    <timestep time="140.00">
        <vehicle id="route0.3" x="385.06" y="-1.65" angle="90.00" type="DEFAULT_VEHTYPE" speed="13.90" pos="385.06" lane="1to2_0" slope="0.00"/>
    </timestep>
    <timestep time="141.00">
        <vehicle id="route0.3" x="398.11" y="-1.65" angle="90.00" type="DEFAULT_VEHTYPE" speed="13.04" pos="398.11" lane="1to2_0" slope="0.00"/>
    </timestep>
    <timestep time="142.00">
        <vehicle id="route0.3" x="410.81" y="-1.65" angle="90.00" type="DEFAULT_VEHTYPE" speed="12.71" pos="410.81" lane="1to2_0" slope="0.00"/>
    </timestep>
    <timestep time="143.00">
        <vehicle id="route0.3" x="424.70" y="-1.65" angle="90.00" type="DEFAULT_VEHTYPE" speed="13.88" pos="424.70" lane="1to2_0" slope="0.00"/>
    </timestep>
    <timestep time="144.00">