<?xml version="1.0" encoding="UTF-8"?>

<!-- generated on Mon Feb 25 09:00:43 2019 by Eclipse SUMO Version 1.1.0
<configuration xmlns:xsi="http://www.w3.org/2001/XMLSchema-instance" xsi:noNamespaceSchemaLocation="http://sumo.dlr.de/xsd/sumoConfiguration.xsd">

    <input>
        <net-file value="fanet.net.xml"/>
        <route-files value="fanet10sped.rou.xml"/>
    </input>

    <output>
        <fcd-output value="fcd.xml"/>
    </output>

    <time>
        <begin value="0"/>
        <end value="90"/>
    </time>

</configuration>
-->

<fcd-export xmlns:xsi="http://www.w3.org/2001/XMLSchema-instance" xsi:noNamespaceSchemaLocation="http://sumo.dlr.de/xsd/fcd_file.xsd">
    <timestep time="0.00">
        <vehicle id="uav1" x="21.43" y="45.93" angle="23.20" type="type1" speed="0.00" pos="5.10" lane="R01_0" slope="0.00"/>
        <vehicle id="uav2" x="28.20" y="42.10" angle="32.01" type="type2" speed="0.00" pos="5.10" lane="R02_0" slope="0.00"/>
        <vehicle id="uav3" x="27.44" y="25.18" angle="45.00" type="type3" speed="0.00" pos="5.10" lane="R03_0" slope="0.00"/>
    </timestep>
    <timestep time="1.00">
        <vehicle id="uav1" x="21.60" y="46.34" angle="23.20" type="type1" speed="0.44" pos="5.54" lane="R01_0" slope="0.00"/>
        <vehicle id="uav2" x="28.48" y="42.54" angle="32.01" type="type2" speed="0.52" pos="5.62" lane="R02_0" slope="0.00"/>
        <vehicle id="uav3" x="27.99" y="25.73" angle="45.00" type="type3" speed="0.78" pos="5.88" lane="R03_0" slope="0.00"/>
    </timestep>
    <timestep time="2.00">
        <vehicle id="uav1" x="22.02" y="47.30" angle="23.20" type="type1" speed="1.05" pos="6.59" lane="R01_0" slope="0.00"/>
        <vehicle id="uav2" x="29.05" y="43.46" angle="32.01" type="type2" speed="1.08" pos="6.69" lane="R02_0" slope="0.00"/>
        <vehicle id="uav3" x="29.10" y="26.84" angle="45.00" type="type3" speed="1.56" pos="7.45" lane="R03_0" slope="0.00"/>
    </timestep>
    <timestep time="3.00">
        <vehicle id="uav1" x="22.63" y="48.72" angle="23.20" type="type1" speed="1.55" pos="8.14" lane="R01_0" slope="0.00"/>
        <vehicle id="uav2" x="29.99" y="44.97" angle="32.01" type="type2" speed="1.78" pos="8.47" lane="R02_0" slope="0.00"/>
        <vehicle id="uav3" x="30.61" y="28.35" angle="45.00" type="type3" speed="2.15" pos="9.59" lane="R03_0" slope="0.00"/>
    </timestep>
    <timestep time="4.00">
        <vehicle id="uav1" x="23.43" y="50.61" angle="23.20" type="type1" speed="2.05" pos="10.19" lane="R01_0" slope="0.00"/>
        <vehicle id="uav2" x="31.36" y="47.15" angle="32.01" type="type2" speed="2.58" pos="11.05" lane="R02_0" slope="0.00"/>
        <vehicle id="uav3" x="32.51" y="30.25" angle="45.00" type="type3" speed="2.68" pos="12.27" lane="R03_0" slope="0.00"/>
    </timestep>
    <timestep time="5.00">
        <vehicle id="uav1" x="24.48" y="53.06" angle="23.20" type="type1" speed="2.67" pos="12.86" lane="R01_0" slope="0.00"/>
        <vehicle id="uav2" x="33.05" y="49.86" angle="32.01" type="type2" speed="3.20" pos="14.25" lane="R02_0" slope="0.00"/>
        <vehicle id="uav3" x="34.80" y="32.54" angle="45.00" type="type3" speed="3.25" pos="15.52" lane="R03_0" slope="0.00"/>
    </timestep>
    <timestep time="6.00">
        <vehicle id="uav1" x="25.81" y="56.15" angle="23.20" type="type1" speed="3.36" pos="16.22" lane="R01_0" slope="0.00"/>
        <vehicle id="uav2" x="35.16" y="53.23" angle="32.01" type="type2" speed="3.97" pos="18.22" lane="R02_0" slope="0.00"/>
        <vehicle id="uav3" x="37.42" y="35.16" angle="45.00" type="type3" speed="3.70" pos="19.22" lane="R03_0" slope="0.00"/>
    </timestep>
    <timestep time="7.00">
        <vehicle id="uav1" x="27.40" y="59.85" angle="23.20" type="type1" speed="4.03" pos="20.25" lane="R01_0" slope="0.00"/>
        <vehicle id="uav2" x="37.54" y="57.05" angle="32.01" type="type2" speed="4.50" pos="22.72" lane="R02_0" slope="0.00"/>
        <vehicle id="uav3" x="40.59" y="38.33" angle="45.00" type="type3" speed="4.48" pos="23.70" lane="R03_0" slope="0.00"/>
    </timestep>
    <timestep time="8.00">
        <vehicle id="uav1" x="29.22" y="64.10" angle="23.20" type="type1" speed="4.63" pos="24.87" lane="R01_0" slope="0.00"/>
        <vehicle id="uav2" x="40.29" y="61.44" angle="32.01" type="type2" speed="5.18" pos="27.90" lane="R02_0" slope="0.00"/>
        <vehicle id="uav3" x="44.15" y="41.89" angle="45.00" type="type3" speed="5.03" pos="28.73" lane="R03_0" slope="0.00"/>
    </timestep>
    <timestep time="9.00">
        <vehicle id="uav1" x="31.21" y="68.74" angle="23.20" type="type1" speed="5.05" pos="29.92" lane="R01_0" slope="0.00"/>
        <vehicle id="uav2" x="43.28" y="66.23" angle="32.01" type="type2" speed="5.65" pos="33.54" lane="R02_0" slope="0.00"/>
        <vehicle id="uav3" x="48.02" y="45.76" angle="45.00" type="type3" speed="5.47" pos="34.20" lane="R03_0" slope="0.00"/>
    </timestep>
    <timestep time="10.00">
        <vehicle id="uav1" x="33.45" y="73.97" angle="23.20" type="type1" speed="5.69" pos="35.61" lane="R01_0" slope="0.00"/>
        <vehicle id="uav2" x="46.58" y="71.51" angle="32.01" type="type2" speed="6.23" pos="39.77" lane="R02_0" slope="0.00"/>
        <vehicle id="uav3" x="52.38" y="50.12" angle="45.00" type="type3" speed="6.18" pos="40.38" lane="R03_0" slope="0.00"/>
    </timestep>
    <timestep time="11.00">
        <vehicle id="uav1" x="36.00" y="79.93" angle="23.20" type="type1" speed="6.48" pos="42.09" lane="R01_0" slope="0.00"/>
        <vehicle id="uav2" x="50.24" y="77.37" angle="32.01" type="type2" speed="6.91" pos="46.68" lane="R02_0" slope="0.00"/>
        <vehicle id="uav3" x="57.10" y="54.84" angle="45.00" type="type3" speed="6.67" pos="47.06" lane="R03_0" slope="0.00"/>
    </timestep>
    <timestep time="12.00">
        <vehicle id="uav1" x="38.84" y="86.56" angle="23.20" type="type1" speed="7.21" pos="49.31" lane="R01_0" slope="0.00"/>
        <vehicle id="uav2" x="54.12" y="83.58" angle="32.01" type="type2" speed="7.33" pos="54.01" lane="R02_0" slope="0.00"/>
        <vehicle id="uav3" x="62.38" y="60.12" angle="45.00" type="type3" speed="7.46" pos="54.52" lane="R03_0" slope="0.00"/>
    </timestep>
    <timestep time="13.00">
        <vehicle id="uav1" x="41.89" y="93.68" angle="23.20" type="type1" speed="7.74" pos="57.05" lane="R01_0" slope="0.00"/>
        <vehicle id="uav2" x="58.36" y="90.36" angle="32.01" type="type2" speed="7.99" pos="62.00" lane="R02_0" slope="0.00"/>
        <vehicle id="uav3" x="68.18" y="65.92" angle="45.00" type="type3" speed="8.21" pos="62.73" lane="R03_0" slope="0.00"/>
    </timestep>
    <timestep time="14.00">
        <vehicle id="uav1" x="45.24" y="101.48" angle="23.20" type="type1" speed="8.49" pos="65.54" lane="R01_0" slope="0.00"/>
        <vehicle id="uav2" x="62.93" y="97.67" angle="32.01" type="type2" speed="8.63" pos="70.63" lane="R02_0" slope="0.00"/>
        <vehicle id="uav3" x="74.28" y="72.02" angle="45.00" type="type3" speed="8.62" pos="71.35" lane="R03_0" slope="0.00"/>
    </timestep>
    <timestep time="15.00">
        <vehicle id="uav1" x="48.85" y="109.92" angle="23.20" type="type1" speed="9.18" pos="74.72" lane="R01_0" slope="0.00"/>
        <vehicle id="uav2" x="67.88" y="105.59" angle="32.01" type="type2" speed="9.34" pos="79.97" lane="R02_0" slope="0.00"/>
        <vehicle id="uav3" x="80.90" y="78.64" angle="45.00" type="type3" speed="9.36" pos="80.71" lane="R03_0" slope="0.00"/>
    </timestep>
    <timestep time="16.00">
        <vehicle id="uav1" x="52.70" y="118.89" angle="23.20" type="type1" speed="9.76" pos="84.48" lane="R01_0" slope="0.00"/>
        <vehicle id="uav2" x="73.13" y="113.99" angle="32.01" type="type2" speed="9.90" pos="89.87" lane="R02_0" slope="0.00"/>
        <vehicle id="uav3" x="87.74" y="85.48" angle="45.00" type="type3" speed="9.68" pos="90.38" lane="R03_0" slope="0.00"/>
    </timestep>
    <timestep time="17.00">
        <vehicle id="uav1" x="56.62" y="128.05" angle="23.20" type="type1" speed="9.96" pos="94.44" lane="R01_0" slope="0.00"/>
        <vehicle id="uav2" x="78.29" y="122.24" angle="32.01" type="type2" speed="9.73" pos="99.60" lane="R02_0" slope="0.00"/>
        <vehicle id="uav3" x="94.61" y="92.35" angle="45.00" type="type3" speed="9.71" pos="100.09" lane="R03_0" slope="0.00"/>
    </timestep>
    <timestep time="18.00">
        <vehicle id="uav1" x="60.47" y="137.02" angle="23.20" type="type1" speed="9.76" pos="104.20" lane="R01_0" slope="0.00"/>
        <vehicle id="uav2" x="83.44" y="130.49" angle="32.01" type="type2" speed="9.72" pos="109.33" lane="R02_0" slope="0.00"/>
        <vehicle id="uav3" x="101.41" y="99.15" angle="45.00" type="type3" speed="9.63" pos="109.72" lane="R03_0" slope="0.00"/>
    </timestep>
    <timestep time="19.00">
        <vehicle id="uav1" x="64.25" y="145.86" angle="23.20" type="type1" speed="9.62" pos="113.82" lane="R01_0" slope="0.00"/>
        <vehicle id="uav2" x="88.68" y="138.87" angle="32.01" type="type2" speed="9.88" pos="119.20" lane="R02_0" slope="0.00"/>
        <vehicle id="uav3" x="108.34" y="106.08" angle="45.00" type="type3" speed="9.80" pos="119.52" lane="R03_0" slope="0.00"/>
    </timestep>
    <timestep time="20.00">
        <vehicle id="uav1" x="68.10" y="154.84" angle="23.20" type="type1" speed="9.77" pos="123.59" lane="R01_0" slope="0.00"/>
        <vehicle id="uav2" x="93.94" y="147.29" angle="32.01" type="type2" speed="9.93" pos="129.14" lane="R02_0" slope="0.00"/>
        <vehicle id="uav3" x="115.14" y="112.88" angle="45.00" type="type3" speed="9.62" pos="129.14" lane="R03_0" slope="0.00"/>
    </timestep>
    <timestep time="21.00">
        <vehicle id="uav1" x="72.01" y="163.96" angle="23.20" type="type1" speed="9.93" pos="133.51" lane="R01_0" slope="0.00"/>
        <vehicle id="uav2" x="99.11" y="155.55" angle="32.01" type="type2" speed="9.74" pos="138.88" lane="R02_0" slope="0.00"/>
        <vehicle id="uav3" x="122.17" y="119.91" angle="45.00" type="type3" speed="9.94" pos="139.08" lane="R03_0" slope="0.00"/>
    </timestep>
    <timestep time="22.00">
        <vehicle id="uav1" x="75.95" y="173.14" angle="23.20" type="type1" speed="9.99" pos="143.50" lane="R01_0" slope="0.00"/>
        <vehicle id="uav2" x="104.35" y="163.94" angle="32.01" type="type2" speed="9.89" pos="148.77" lane="R02_0" slope="0.00"/>
        <vehicle id="uav3" x="129.09" y="126.83" angle="45.00" type="type3" speed="9.78" pos="148.86" lane="R03_0" slope="0.00"/>
    </timestep>
    <timestep time="23.00">
        <vehicle id="uav1" x="79.74" y="181.99" angle="23.20" type="type1" speed="9.63" pos="153.13" lane="R01_0" slope="0.00"/>
        <vehicle id="uav2" x="109.63" y="172.39" angle="32.01" type="type2" speed="9.97" pos="158.74" lane="R02_0" slope="0.00"/>
        <vehicle id="uav3" x="136.11" y="133.85" angle="45.00" type="type3" speed="9.93" pos="158.79" lane="R03_0" slope="0.00"/>
    </timestep>
    <timestep time="24.00">
        <vehicle id="uav1" x="83.52" y="190.82" angle="23.20" type="type1" speed="9.60" pos="162.74" lane="R01_0" slope="0.00"/>
        <vehicle id="uav2" x="114.87" y="180.77" angle="32.01" type="type2" speed="9.87" pos="168.62" lane="R02_0" slope="0.00"/>
        <vehicle id="uav3" x="143.08" y="140.82" angle="45.00" type="type3" speed="9.86" pos="168.65" lane="R03_0" slope="0.00"/>
    </timestep>
    <timestep time="25.00">
        <vehicle id="uav1" x="87.45" y="199.98" angle="23.20" type="type1" speed="9.97" pos="172.70" lane="R01_0" slope="0.00"/>
        <vehicle id="uav2" x="120.05" y="189.06" angle="32.01" type="type2" speed="9.77" pos="178.39" lane="R02_0" slope="0.00"/>
        <vehicle id="uav3" x="150.10" y="147.84" angle="45.00" type="type3" speed="9.92" pos="178.57" lane="R03_0" slope="0.00"/>
    </timestep>
    <timestep time="26.00">
        <vehicle id="uav1" x="91.36" y="209.11" angle="23.20" type="type1" speed="9.93" pos="182.63" lane="R01_0" slope="0.00"/>
        <vehicle id="uav2" x="125.34" y="197.52" angle="32.01" type="type2" speed="9.98" pos="188.37" lane="R02_0" slope="0.00"/>
        <vehicle id="uav3" x="157.14" y="154.88" angle="45.00" type="type3" speed="9.97" pos="188.54" lane="R03_0" slope="0.00"/>
    </timestep>
    <timestep time="27.00">
        <vehicle id="uav1" x="95.18" y="218.03" angle="23.20" type="type1" speed="9.71" pos="192.34" lane="R01_0" slope="0.00"/>
        <vehicle id="uav2" x="130.56" y="205.88" angle="32.01" type="type2" speed="9.86" pos="198.23" lane="R02_0" slope="0.00"/>
        <vehicle id="uav3" x="164.13" y="161.87" angle="45.00" type="type3" speed="9.88" pos="198.42" lane="R03_0" slope="0.00"/>
    </timestep>
    <timestep time="28.00">
        <vehicle id="uav1" x="99.09" y="227.14" angle="23.20" type="type1" speed="9.92" pos="202.26" lane="R01_0" slope="0.00"/>
        <vehicle id="uav2" x="135.72" y="214.13" angle="32.01" type="type2" speed="9.73" pos="207.96" lane="R02_0" slope="0.00"/>
        <vehicle id="uav3" x="171.09" y="168.83" angle="45.00" type="type3" speed="9.83" pos="208.25" lane="R03_0" slope="0.00"/>
    </timestep>
    <timestep time="29.00">
        <vehicle id="uav1" x="102.93" y="236.11" angle="23.20" type="type1" speed="9.75" pos="212.01" lane="R01_0" slope="0.00"/>
        <vehicle id="uav2" x="140.94" y="222.48" angle="32.01" type="type2" speed="9.84" pos="217.80" lane="R02_0" slope="0.00"/>
        <vehicle id="uav3" x="178.01" y="175.75" angle="45.00" type="type3" speed="9.79" pos="218.05" lane="R03_0" slope="0.00"/>
    </timestep>
    <timestep time="30.00">
        <vehicle id="uav1" x="106.74" y="245.00" angle="23.20" type="type1" speed="9.67" pos="221.68" lane="R01_0" slope="0.00"/>
        <vehicle id="uav2" x="146.11" y="230.76" angle="32.01" type="type2" speed="9.77" pos="227.57" lane="R02_0" slope="0.00"/>
        <vehicle id="uav3" x="184.96" y="182.70" angle="45.00" type="type3" speed="9.83" pos="227.88" lane="R03_0" slope="0.00"/>
    </timestep>
    <timestep time="31.00">
        <vehicle id="uav1" x="110.62" y="254.06" angle="23.20" type="type1" speed="9.85" pos="231.53" lane="R01_0" slope="0.00"/>
        <vehicle id="uav2" x="151.21" y="238.91" angle="32.01" type="type2" speed="9.61" pos="237.18" lane="R02_0" slope="0.00"/>
        <vehicle id="uav3" x="192.03" y="189.77" angle="45.00" type="type3" speed="9.99" pos="237.87" lane="R03_0" slope="0.00"/>
    </timestep>
    <timestep time="32.00">
        <vehicle id="uav1" x="114.51" y="263.14" angle="23.20" type="type1" speed="9.88" pos="241.41" lane="R01_0" slope="0.00"/>
        <vehicle id="uav2" x="156.49" y="247.35" angle="32.01" type="type2" speed="9.96" pos="247.14" lane="R02_0" slope="0.00"/>
        <vehicle id="uav3" x="198.85" y="196.59" angle="45.00" type="type3" speed="9.65" pos="247.52" lane="R03_0" slope="0.00"/>
    </timestep>
    <timestep time="33.00">
        <vehicle id="uav1" x="118.35" y="272.10" angle="23.20" type="type1" speed="9.75" pos="251.16" lane="R01_0" slope="0.00"/>
        <vehicle id="uav2" x="161.59" y="255.52" angle="32.01" type="type2" speed="9.63" pos="256.77" lane="R02_0" slope="0.00"/>
        <vehicle id="uav3" x="205.78" y="203.52" angle="45.00" type="type3" speed="9.80" pos="257.33" lane="R03_0" slope="0.00"/>
    </timestep>
    <timestep time="34.00">
        <vehicle id="uav1" x="122.23" y="281.13" angle="23.20" type="type1" speed="9.83" pos="260.99" lane="R01_0" slope="0.00"/>
        <vehicle id="uav2" x="166.74" y="263.76" angle="32.01" type="type2" speed="9.72" pos="266.48" lane="R02_0" slope="0.00"/>
        <vehicle id="uav3" x="212.72" y="210.46" angle="45.00" type="type3" speed="9.82" pos="267.14" lane="R03_0" slope="0.00"/>
    </timestep>
    <timestep time="35.00">
        <vehicle id="uav1" x="126.03" y="290.00" angle="23.20" type="type1" speed="9.65" pos="270.64" lane="R01_0" slope="0.00"/>
        <vehicle id="uav2" x="171.92" y="272.04" angle="32.01" type="type2" speed="9.77" pos="276.25" lane="R02_0" slope="0.00"/>
        <vehicle id="uav3" x="219.52" y="217.26" angle="45.00" type="type3" speed="9.61" pos="276.75" lane="R03_0" slope="0.00"/>
    </timestep>
    <timestep time="36.00">
        <vehicle id="uav1" x="129.92" y="299.09" angle="23.20" type="type1" speed="9.88" pos="280.52" lane="R01_0" slope="0.00"/>
        <vehicle id="uav2" x="177.13" y="280.38" angle="32.01" type="type2" speed="9.84" pos="286.09" lane="R02_0" slope="0.00"/>
        <vehicle id="uav3" x="226.49" y="224.23" angle="45.00" type="type3" speed="9.86" pos="286.62" lane="R03_0" slope="0.00"/>
    </timestep>
    <timestep time="37.00">
        <vehicle id="uav1" x="133.75" y="308.02" angle="23.20" type="type1" speed="9.72" pos="290.24" lane="R01_0" slope="0.00"/>
        <vehicle id="uav2" x="182.41" y="288.83" angle="32.01" type="type2" speed="9.96" pos="296.05" lane="R02_0" slope="0.00"/>
        <vehicle id="uav3" x="233.43" y="231.17" angle="45.00" type="type3" speed="9.81" pos="296.43" lane="R03_0" slope="0.00"/>
    </timestep>
    <timestep time="38.00">
        <vehicle id="uav1" x="137.58" y="316.97" angle="23.20" type="type1" speed="9.74" pos="299.98" lane="R01_0" slope="0.00"/>
        <vehicle id="uav2" x="187.54" y="297.04" angle="32.01" type="type2" speed="9.69" pos="305.73" lane="R02_0" slope="0.00"/>
        <vehicle id="uav3" x="240.43" y="238.17" angle="45.00" type="type3" speed="9.89" pos="306.32" lane="R03_0" slope="0.00"/>
    </timestep>
    <timestep time="39.00">
        <vehicle id="uav1" x="141.41" y="325.90" angle="23.20" type="type1" speed="9.72" pos="309.69" lane="R01_0" slope="0.00"/>
        <vehicle id="uav2" x="192.82" y="305.48" angle="32.01" type="type2" speed="9.95" pos="315.68" lane="R02_0" slope="0.00"/>
        <vehicle id="uav3" x="247.29" y="245.03" angle="45.00" type="type3" speed="9.71" pos="316.03" lane="R03_0" slope="0.00"/>
    </timestep>
    <timestep time="40.00">
        <vehicle id="uav1" x="145.33" y="335.04" angle="23.20" type="type1" speed="9.94" pos="319.64" lane="R01_0" slope="0.00"/>
        <vehicle id="uav2" x="197.93" y="313.66" angle="32.01" type="type2" speed="9.65" pos="325.33" lane="R02_0" slope="0.00"/>
        <vehicle id="uav3" x="254.26" y="252.00" angle="45.00" type="type3" speed="9.85" pos="325.88" lane="R03_0" slope="0.00"/>
    </timestep>
    <timestep time="41.00">
        <vehicle id="uav1" x="149.19" y="344.05" angle="23.20" type="type1" speed="9.81" pos="329.45" lane="R01_0" slope="0.00"/>
        <vehicle id="uav2" x="203.22" y="322.13" angle="32.01" type="type2" speed="9.98" pos="335.31" lane="R02_0" slope="0.00"/>
        <vehicle id="uav3" x="261.22" y="258.96" angle="45.00" type="type3" speed="9.84" pos="335.73" lane="R03_0" slope="0.00"/>
    </timestep>
    <timestep time="42.00">
        <vehicle id="uav1" x="151.36" y="349.12" angle="23.20" type="type1" speed="5.51" pos="334.96" lane="R01_0" slope="0.00"/>
        <vehicle id="uav2" x="208.31" y="330.28" angle="32.01" type="type2" speed="9.61" pos="344.92" lane="R02_0" slope="0.00"/>
        <vehicle id="uav3" x="268.05" y="265.79" angle="45.00" type="type3" speed="9.66" pos="345.39" lane="R03_0" slope="0.00"/>
    </timestep>
    <timestep time="43.00">
        <vehicle id="uav1" x="149.48" y="351.25" angle="336.31" type="type1" speed="3.81" pos="3.54" lane=":n1_0_0" slope="0.00"/>
        <vehicle id="uav2" x="213.42" y="338.45" angle="32.01" type="type2" speed="9.64" pos="354.56" lane="R02_0" slope="0.00"/>
        <vehicle id="uav3" x="275.03" y="272.77" angle="45.00" type="type3" speed="9.86" pos="355.25" lane="R03_0" slope="0.00"/>
    </timestep>
    <timestep time="44.00">
        <vehicle id="uav1" x="147.54" y="348.33" angle="226.65" type="type1" speed="3.63" pos="2.50" lane="L10_0" slope="0.00"/>
        <vehicle id="uav2" x="218.58" y="346.71" angle="32.01" type="type2" speed="9.73" pos="364.30" lane="R02_0" slope="0.00"/>
        <vehicle id="uav3" x="281.98" y="279.72" angle="45.00" type="type3" speed="9.83" pos="365.08" lane="R03_0" slope="0.00"/>
    </timestep>
    <timestep time="45.00">
        <vehicle id="uav1" x="145.91" y="344.51" angle="203.20" type="type1" speed="4.16" pos="6.66" lane="L10_0" slope="0.00"/>
        <vehicle id="uav2" x="223.82" y="355.09" angle="32.01" type="type2" speed="9.89" pos="374.19" lane="R02_0" slope="0.00"/>
        <vehicle id="uav3" x="288.94" y="286.68" angle="45.00" type="type3" speed="9.85" pos="374.93" lane="R03_0" slope="0.00"/>
    </timestep>
    <timestep time="46.00">
        <vehicle id="uav1" x="143.97" y="339.98" angle="203.20" type="type1" speed="4.92" pos="11.58" lane="L10_0" slope="0.00"/>
        <vehicle id="uav2" x="229.00" y="363.37" angle="32.01" type="type2" speed="9.76" pos="383.95" lane="R02_0" slope="0.00"/>
        <vehicle id="uav3" x="295.85" y="293.59" angle="45.00" type="type3" speed="9.77" pos="384.70" lane="R03_0" slope="0.00"/>
    </timestep>
    <timestep time="47.00">
        <vehicle id="uav1" x="141.84" y="335.03" angle="203.20" type="type1" speed="5.39" pos="16.97" lane="L10_0" slope="0.00"/>
        <vehicle id="uav2" x="234.12" y="371.56" angle="32.01" type="type2" speed="9.66" pos="393.61" lane="R02_0" slope="0.00"/>
        <vehicle id="uav3" x="300.95" y="298.69" angle="45.00" type="type3" speed="7.21" pos="391.91" lane="R03_0" slope="0.00"/>
    </timestep>
    <timestep time="48.00">
        <vehicle id="uav1" x="139.41" y="329.34" angle="203.20" type="type1" speed="6.19" pos="23.16" lane="L10_0" slope="0.00"/>
        <vehicle id="uav2" x="239.22" y="379.72" angle="32.01" type="type2" speed="9.62" pos="403.23" lane="R02_0" slope="0.00"/>
        <vehicle id="uav3" x="300.30" y="301.40" angle="6.50" type="type3" speed="3.47" pos="3.21" lane=":n3_0_0" slope="0.00"/>
    </timestep>
    <timestep time="49.00">
        <vehicle id="uav1" x="136.80" y="323.25" angle="203.20" type="type1" speed="6.63" pos="29.79" lane="L10_0" slope="0.00"/>
        <vehicle id="uav2" x="244.31" y="387.87" angle="32.01" type="type2" speed="9.61" pos="412.84" lane="R02_0" slope="0.00"/>
        <vehicle id="uav3" x="297.43" y="299.69" angle="257.78" type="type3" speed="3.49" pos="2.04" lane="L30_0" slope="0.00"/>
    </timestep>
    <timestep time="50.00">
        <vehicle id="uav1" x="133.89" y="316.48" angle="203.20" type="type1" speed="7.36" pos="37.15" lane="L10_0" slope="0.00"/>
        <vehicle id="uav2" x="248.84" y="395.11" angle="32.01" type="type2" speed="8.54" pos="421.38" lane="R02_0" slope="0.00"/>
        <vehicle id="uav3" x="294.49" y="296.75" angle="225.00" type="type3" speed="4.16" pos="6.19" lane="L30_0" slope="0.00"/>
    </timestep>
    <timestep time="51.00">
        <vehicle id="uav1" x="130.75" y="309.15" angle="203.20" type="type1" speed="7.98" pos="45.13" lane="L10_0" slope="0.00"/>
        <vehicle id="uav2" x="251.19" y="398.88" angle="32.01" type="type2" speed="4.44" pos="425.82" lane="R02_0" slope="0.00"/>
        <vehicle id="uav3" x="291.08" y="293.34" angle="225.00" type="type3" speed="4.82" pos="11.01" lane="L30_0" slope="0.00"/>
    </timestep>
    <timestep time="52.00">
        <vehicle id="uav1" x="127.40" y="301.33" angle="203.20" type="type1" speed="8.51" pos="53.64" lane="L10_0" slope="0.00"/>
        <vehicle id="uav2" x="250.08" y="401.43" angle="355.95" type="type2" speed="3.42" pos="3.11" lane=":n2_0_0" slope="0.00"/>
        <vehicle id="uav3" x="287.37" y="289.63" angle="225.00" type="type3" speed="5.25" pos="16.27" lane="L30_0" slope="0.00"/>
    </timestep>
    <timestep time="53.00">
        <vehicle id="uav1" x="123.73" y="292.77" angle="203.20" type="type1" speed="9.31" pos="62.95" lane="L10_0" slope="0.00"/>
        <vehicle id="uav2" x="247.85" y="399.58" angle="258.02" type="type2" speed="3.06" pos="1.50" lane="L20_0" slope="0.00"/>
        <vehicle id="uav3" x="283.22" y="285.48" angle="225.00" type="type3" speed="5.86" pos="22.13" lane="L30_0" slope="0.00"/>
    </timestep>
    <timestep time="54.00">
        <vehicle id="uav1" x="119.86" y="283.73" angle="203.20" type="type1" speed="9.84" pos="72.78" lane="L10_0" slope="0.00"/>
        <vehicle id="uav2" x="245.98" y="396.60" angle="212.00" type="type2" speed="3.52" pos="5.02" lane="L20_0" slope="0.00"/>
        <vehicle id="uav3" x="278.55" y="280.81" angle="225.00" type="type3" speed="6.61" pos="28.74" lane="L30_0" slope="0.00"/>
    </timestep>
    <timestep time="55.00">
        <vehicle id="uav1" x="116.05" y="274.84" angle="203.20" type="type1" speed="9.67" pos="82.45" lane="L10_0" slope="0.00"/>
        <vehicle id="uav2" x="243.90" y="393.27" angle="212.00" type="type2" speed="3.92" pos="8.94" lane="L20_0" slope="0.00"/>
        <vehicle id="uav3" x="273.42" y="275.68" angle="225.00" type="type3" speed="7.26" pos="36.00" lane="L30_0" slope="0.00"/>
    </timestep>
    <timestep time="56.00">
        <vehicle id="uav1" x="112.19" y="265.83" angle="203.20" type="type1" speed="9.81" pos="92.26" lane="L10_0" slope="0.00"/>
        <vehicle id="uav2" x="241.57" y="389.53" angle="212.00" type="type2" speed="4.41" pos="13.35" lane="L20_0" slope="0.00"/>
        <vehicle id="uav3" x="267.99" y="270.25" angle="225.00" type="type3" speed="7.68" pos="43.68" lane="L30_0" slope="0.00"/>
    </timestep>
    <timestep time="57.00">
        <vehicle id="uav1" x="108.32" y="256.81" angle="203.20" type="type1" speed="9.81" pos="102.07" lane="L10_0" slope="0.00"/>
        <vehicle id="uav2" x="238.88" y="385.23" angle="212.00" type="type2" speed="5.08" pos="18.42" lane="L20_0" slope="0.00"/>
        <vehicle id="uav3" x="262.23" y="264.49" angle="225.00" type="type3" speed="8.14" pos="51.82" lane="L30_0" slope="0.00"/>
    </timestep>
    <timestep time="58.00">
        <vehicle id="uav1" x="104.41" y="247.69" angle="203.20" type="type1" speed="9.92" pos="111.99" lane="L10_0" slope="0.00"/>
        <vehicle id="uav2" x="235.86" y="380.40" angle="212.00" type="type2" speed="5.70" pos="24.12" lane="L20_0" slope="0.00"/>
        <vehicle id="uav3" x="255.95" y="258.21" angle="225.00" type="type3" speed="8.88" pos="60.70" lane="L30_0" slope="0.00"/>
    </timestep>
    <timestep time="59.00">
        <vehicle id="uav1" x="100.52" y="238.62" angle="203.20" type="type1" speed="9.87" pos="121.86" lane="L10_0" slope="0.00"/>
        <vehicle id="uav2" x="232.51" y="375.04" angle="212.00" type="type2" speed="6.32" pos="30.44" lane="L20_0" slope="0.00"/>
        <vehicle id="uav3" x="249.31" y="251.57" angle="225.00" type="type3" speed="9.39" pos="70.10" lane="L30_0" slope="0.00"/>
    </timestep>
    <timestep time="60.00">
        <vehicle id="uav1" x="96.64" y="229.56" angle="203.20" type="type1" speed="9.85" pos="131.72" lane="L10_0" slope="0.00"/>
        <vehicle id="uav2" x="228.77" y="369.06" angle="212.00" type="type2" speed="7.06" pos="37.49" lane="L20_0" slope="0.00"/>
        <vehicle id="uav3" x="242.46" y="244.72" angle="225.00" type="type3" speed="9.68" pos="79.78" lane="L30_0" slope="0.00"/>
    </timestep>
    <timestep time="61.00">
        <vehicle id="uav1" x="92.79" y="220.58" angle="203.20" type="type1" speed="9.77" pos="141.48" lane="L10_0" slope="0.00"/>
        <vehicle id="uav2" x="224.77" y="362.66" angle="212.00" type="type2" speed="7.54" pos="45.03" lane="L20_0" slope="0.00"/>
        <vehicle id="uav3" x="235.43" y="237.69" angle="225.00" type="type3" speed="9.95" pos="89.72" lane="L30_0" slope="0.00"/>
    </timestep>
    <timestep time="62.00">
        <vehicle id="uav1" x="88.87" y="211.43" angle="203.20" type="type1" speed="9.95" pos="151.44" lane="L10_0" slope="0.00"/>
        <vehicle id="uav2" x="220.40" y="355.67" angle="212.00" type="type2" speed="8.25" pos="53.28" lane="L20_0" slope="0.00"/>
        <vehicle id="uav3" x="228.38" y="230.64" angle="225.00" type="type3" speed="9.96" pos="99.69" lane="L30_0" slope="0.00"/>
    </timestep>
    <timestep time="63.00">
        <vehicle id="uav1" x="84.97" y="202.33" angle="203.20" type="type1" speed="9.91" pos="161.35" lane="L10_0" slope="0.00"/>
        <vehicle id="uav2" x="215.80" y="348.30" angle="212.00" type="type2" speed="8.68" pos="61.96" lane="L20_0" slope="0.00"/>
        <vehicle id="uav3" x="221.37" y="223.63" angle="225.00" type="type3" speed="9.92" pos="109.61" lane="L30_0" slope="0.00"/>
    </timestep>
    <timestep time="64.00">
        <vehicle id="uav1" x="81.08" y="193.25" angle="203.20" type="type1" speed="9.87" pos="171.22" lane="L10_0" slope="0.00"/>
        <vehicle id="uav2" x="210.95" y="340.55" angle="212.00" type="type2" speed="9.14" pos="71.11" lane="L20_0" slope="0.00"/>
        <vehicle id="uav3" x="214.37" y="216.63" angle="225.00" type="type3" speed="9.90" pos="119.51" lane="L30_0" slope="0.00"/>
    </timestep>
    <timestep time="65.00">
        <vehicle id="uav1" x="77.21" y="184.23" angle="203.20" type="type1" speed="9.81" pos="181.03" lane="L10_0" slope="0.00"/>
        <vehicle id="uav2" x="205.74" y="332.20" angle="212.00" type="type2" speed="9.85" pos="80.95" lane="L20_0" slope="0.00"/>
        <vehicle id="uav3" x="207.35" y="209.61" angle="225.00" type="type3" speed="9.92" pos="129.43" lane="L30_0" slope="0.00"/>
    </timestep>
    <timestep time="66.00">
        <vehicle id="uav1" x="73.42" y="175.39" angle="203.20" type="type1" speed="9.62" pos="190.66" lane="L10_0" slope="0.00"/>
        <vehicle id="uav2" x="200.63" y="324.03" angle="212.00" type="type2" speed="9.63" pos="90.58" lane="L20_0" slope="0.00"/>
        <vehicle id="uav3" x="200.34" y="202.60" angle="225.00" type="type3" speed="9.91" pos="139.34" lane="L30_0" slope="0.00"/>
    </timestep>
    <timestep time="67.00">
        <vehicle id="uav1" x="69.57" y="166.40" angle="203.20" type="type1" speed="9.77" pos="200.43" lane="L10_0" slope="0.00"/>
        <vehicle id="uav2" x="195.42" y="315.69" angle="212.00" type="type2" speed="9.84" pos="100.42" lane="L20_0" slope="0.00"/>
        <vehicle id="uav3" x="193.50" y="195.76" angle="225.00" type="type3" speed="9.68" pos="149.03" lane="L30_0" slope="0.00"/>